 Output coordinates in angstroms (scale by  1.889725989 to convert to a.u.)

  No.       Tag          Charge          X              Y              Z
 ---- ---------------- ---------- -------------- -------------- --------------
    1 O                    8.0000    -2.19563602     1.04123287     1.00084176
    2 C                    6.0000    -2.40368693    -0.16451263     0.28320807
    3 C                    6.0000    -1.37771655    -0.40417730    -0.82948044
    4 N                    7.0000    -0.01810417    -0.58909903    -0.33775846
    5 C                    6.0000     0.56146814    -1.80836392    -0.01579210
    6 C                    6.0000    -0.11348632    -3.11779205    -0.19421663
    7 N                    7.0000     1.79838493    -1.64922079     0.44902302
    8 C                    6.0000     2.04106359    -0.28674832     0.44698007
    9 C                    6.0000     0.92643933     0.39285873    -0.02567250
   10 N                    7.0000     0.74893607     1.74724649    -0.19359565
   11 O                    8.0000    -0.47998475     2.22332286    -0.52355133
   12 O                    8.0000     1.76276932     2.53903371     0.03766643
   13 H                    1.0000    -1.54609037     1.63922076     0.48340274
   14 H                    1.0000    -3.40297509    -0.18095323    -0.19251606
   15 H                    1.0000    -2.37166367    -1.00786307     0.99031520
   16 H                    1.0000    -1.65326605    -1.30070093    -1.39694510
   17 H                    1.0000    -1.36493263     0.46052478    -1.49547061
   18 H                    1.0000     0.57247421    -3.88961357     0.16182345
   19 H                    1.0000    -0.35447818    -3.33249718    -1.24554651
   20 H                    1.0000    -1.04890476    -3.19496949     0.37603189
   21 H                    1.0000     2.96364276     0.14806279     0.78540888

         Total DFT energy =     -623.127492449245

                    DFT Final Alpha Molecular Orbital Analysis
                    ------------------------------------------

 Vector    1  Occ=1.000000D+00  E=-1.919721D+01

 Vector   47  Occ=0.000000D+00  E= 4.861435D-02

 Vector   48  Occ=0.000000D+00  E= 1.005786D-01

 Vector   49  Occ=0.000000D+00  E= 1.109492D-01

 Vector   50  Occ=0.000000D+00  E= 1.381864D-01

 Vector   51  Occ=0.000000D+00  E= 1.486272D-01

 Vector   52  Occ=0.000000D+00  E= 1.597342D-01

 Vector   53  Occ=0.000000D+00  E= 1.661463D-01

 Vector   54  Occ=0.000000D+00  E= 1.719636D-01

 Vector   55  Occ=0.000000D+00  E= 1.797563D-01

 Vector   56  Occ=0.000000D+00  E= 1.885676D-01

 Vector   57  Occ=0.000000D+00  E= 2.026368D-01

 Vector   58  Occ=0.000000D+00  E= 2.223321D-01

 Vector   59  Occ=0.000000D+00  E= 2.253404D-01

 Vector   60  Occ=0.000000D+00  E= 2.379711D-01

 Vector   61  Occ=0.000000D+00  E= 2.425432D-01

 Vector   62  Occ=0.000000D+00  E= 2.593408D-01

 Vector   63  Occ=0.000000D+00  E= 2.725472D-01

 Vector   64  Occ=0.000000D+00  E= 3.040630D-01

 Vector   65  Occ=0.000000D+00  E= 3.348374D-01

 Vector   66  Occ=0.000000D+00  E= 3.436191D-01

 Vector   67  Occ=0.000000D+00  E= 3.897635D-01

 Vector   68  Occ=0.000000D+00  E= 4.091167D-01

 Vector   69  Occ=0.000000D+00  E= 4.917086D-01

 Vector   70  Occ=0.000000D+00  E= 5.362112D-01

 Vector   71  Occ=0.000000D+00  E= 5.516052D-01

 Vector   72  Occ=0.000000D+00  E= 5.673647D-01

 Vector   73  Occ=0.000000D+00  E= 5.837728D-01

 Vector   74  Occ=0.000000D+00  E= 5.924132D-01

 Vector   75  Occ=0.000000D+00  E= 6.065079D-01

 Vector   76  Occ=0.000000D+00  E= 6.212696D-01

 Vector   77  Occ=0.000000D+00  E= 6.320136D-01

 Vector   78  Occ=0.000000D+00  E= 6.573696D-01

 Vector   79  Occ=0.000000D+00  E= 6.684706D-01

 Vector   80  Occ=0.000000D+00  E= 6.795280D-01

 Vector   81  Occ=0.000000D+00  E= 7.025034D-01

 Vector   82  Occ=0.000000D+00  E= 7.046057D-01

 Vector   83  Occ=0.000000D+00  E= 7.224886D-01

 Vector   84  Occ=0.000000D+00  E= 7.506681D-01

 Vector   85  Occ=0.000000D+00  E= 7.557993D-01

 Vector   86  Occ=0.000000D+00  E= 7.773982D-01

 Vector   87  Occ=0.000000D+00  E= 8.125862D-01

 Vector   88  Occ=0.000000D+00  E= 8.298455D-01

 Vector   89  Occ=0.000000D+00  E= 8.410305D-01

 Vector   90  Occ=0.000000D+00  E= 8.492691D-01

 Vector   91  Occ=0.000000D+00  E= 8.865905D-01

 Vector   92  Occ=0.000000D+00  E= 9.041468D-01

 Vector   93  Occ=0.000000D+00  E= 9.110783D-01

 Vector   94  Occ=0.000000D+00  E= 9.155821D-01

 Vector   95  Occ=0.000000D+00  E= 9.216524D-01

 Vector   96  Occ=0.000000D+00  E= 9.441549D-01

 Vector   97  Occ=0.000000D+00  E= 9.588920D-01

 Vector   98  Occ=0.000000D+00  E= 9.810553D-01

 Vector   99  Occ=0.000000D+00  E= 9.866060D-01

 Vector  100  Occ=0.000000D+00  E= 9.945684D-01

 Vector  101  Occ=0.000000D+00  E= 9.971525D-01

 Vector  102  Occ=0.000000D+00  E= 1.023342D+00

 Vector  103  Occ=0.000000D+00  E= 1.036627D+00

 Vector  104  Occ=0.000000D+00  E= 1.047233D+00

 Vector  105  Occ=0.000000D+00  E= 1.076986D+00

 Vector  106  Occ=0.000000D+00  E= 1.093472D+00

 Vector  107  Occ=0.000000D+00  E= 1.107297D+00

 Vector  108  Occ=0.000000D+00  E= 1.138595D+00

 Vector  109  Occ=0.000000D+00  E= 1.144136D+00

 Vector  110  Occ=0.000000D+00  E= 1.166953D+00

 Vector  111  Occ=0.000000D+00  E= 1.214380D+00

 Vector  112  Occ=0.000000D+00  E= 1.242565D+00

 Vector  113  Occ=0.000000D+00  E= 1.282213D+00

 Vector  114  Occ=0.000000D+00  E= 1.329931D+00

 Vector  115  Occ=0.000000D+00  E= 1.385186D+00

 Vector  116  Occ=0.000000D+00  E= 1.398176D+00

 Vector  117  Occ=0.000000D+00  E= 1.445938D+00

 Vector  118  Occ=0.000000D+00  E= 1.495720D+00

 Vector  119  Occ=0.000000D+00  E= 1.550930D+00

 Vector  120  Occ=0.000000D+00  E= 1.681525D+00

 Vector  121  Occ=0.000000D+00  E= 1.695942D+00

 Vector  122  Occ=0.000000D+00  E= 1.723270D+00

 Vector  123  Occ=0.000000D+00  E= 1.742175D+00

 Vector  124  Occ=0.000000D+00  E= 1.881432D+00

 Vector  125  Occ=0.000000D+00  E= 1.971590D+00

 Vector  126  Occ=0.000000D+00  E= 1.977293D+00

     Multipole analysis of the density
     ---------------------------------

     L   x y z        total         alpha         beta         nuclear
     -   - - -        -----         -----         ----         -------
     0   0 0 0     -1.000000    -46.000000    -45.000000     90.000000

     1   1 0 0     -1.873470     -1.900062      0.026592      0.000000
     1   0 1 0     -4.183202     -3.480296     -0.702906     -0.000000
     1   0 0 1     -1.219233     -0.534822     -0.684411     -0.000000

     2   2 0 0    -66.729029   -402.189425   -394.943495    730.403891
     2   1 1 0      4.525378     -5.076700      0.291472      9.310606
     2   1 0 1      3.825748     -2.180857     -1.856367      7.862972
     2   0 2 0    -72.988514   -517.464240   -502.719333    947.195060
     2   0 1 1      2.414238     -1.446438     -2.323144      6.183820

         Total DFT energy =     -623.127552710635
         Total DFT energy =     -623.127411723493
         Total DFT energy =     -623.127602564246
         Total DFT energy =     -623.127343333361
         Total DFT energy =     -623.127519519611
         Total DFT energy =     -623.127440974261
         Total DFT energy =     -623.127423418417
         Total DFT energy =     -623.127507733524
         Total DFT energy =     -623.127326777165
         Total DFT energy =     -623.127602884435
         Total DFT energy =     -623.127400625682
         Total DFT energy =     -623.127532213343
         Total DFT energy =     -623.127424837868
         Total DFT energy =     -623.127513452122
         Total DFT energy =     -623.127450949721
         Total DFT energy =     -623.127467339066
         Total DFT energy =     -623.127439940027
         Total DFT energy =     -623.127491475314
         Total DFT energy =     -623.127504965614
         Total DFT energy =     -623.127408931701
         Total DFT energy =     -623.127442019600
         Total DFT energy =     -623.127482119945
         Total DFT energy =     -623.127535087579
         Total DFT energy =     -623.127427386238
         Total DFT energy =     -623.127373236126
         Total DFT energy =     -623.127544636632
         Total DFT energy =     -623.127456295506
         Total DFT energy =     -623.127456017851
         Total DFT energy =     -623.127438479626
         Total DFT energy =     -623.127521696294
         Total DFT energy =     -623.127458937033
         Total DFT energy =     -623.127467874033
         Total DFT energy =     -623.127454020875
         Total DFT energy =     -623.127477118865
         Total DFT energy =     -623.127463935139
         Total DFT energy =     -623.127466160430
         Total DFT energy =     -623.127487683810
         Total DFT energy =     -623.127444656580
         Total DFT energy =     -623.127505964776
         Total DFT energy =     -623.127431937985
         Total DFT energy =     -623.127491107043
         Total DFT energy =     -623.127477429991
         Total DFT energy =     -623.127461015148
         Total DFT energy =     -623.127446123313
         Total DFT energy =     -623.127509669021
         Total DFT energy =     -623.127499660918
         Total DFT energy =     -623.127478815432
         Total DFT energy =     -623.127501461603
         Total DFT energy =     -623.127473146369
         Total DFT energy =     -623.127487719199
         Total DFT energy =     -623.127491594827
         Total DFT energy =     -623.127495512293
         Total DFT energy =     -623.127467765407
         Total DFT energy =     -623.127473474158
         Total DFT energy =     -623.127493696285
         Total DFT energy =     -623.127488492900
         Total DFT energy =     -623.127488159190
         Total DFT energy =     -623.127499501686
         Total DFT energy =     -623.127460363201
         Total DFT energy =     -623.127497226929
         Total DFT energy =     -623.127474784201
         Total DFT energy =     -623.127481494122
         Total DFT energy =     -623.127496565582
         Total DFT energy =     -623.127450268947
         Total DFT energy =     -623.127510610045
         Total DFT energy =     -623.127469893427
         Total DFT energy =     -623.127498322999
         Total DFT energy =     -623.127474644377
         Total DFT energy =     -623.127493143970
         Total DFT energy =     -623.127471120457
         Total DFT energy =     -623.127493133060
         Total DFT energy =     -623.127485348084
         Total DFT energy =     -623.127491612794
         Total DFT energy =     -623.127496578873
         Total DFT energy =     -623.127482078060
         Total DFT energy =     -623.127503302615
         Total DFT energy =     -623.127475328844
         Total DFT energy =     -623.127491520497
         Total DFT energy =     -623.127462083415
         Total DFT energy =     -623.127493170946
         Total DFT energy =     -623.127465750834
         Total DFT energy =     -623.127502264933
         Total DFT energy =     -623.127477124269
         Total DFT energy =     -623.127481345049
         Total DFT energy =     -623.127490881892
         Total DFT energy =     -623.127497595538
         Total DFT energy =     -623.127456949470
         Total DFT energy =     -623.127482558574
         Total DFT energy =     -623.127491453856
         Total DFT energy =     -623.127492911250
         Total DFT energy =     -623.127486095927
 Zero-Point correction to Energy  =  101.962 kcal/mol  (  0.162487 au)
 Thermal correction to Energy     =  108.931 kcal/mol  (  0.173593 au)
 Thermal correction to Enthalpy   =  109.524 kcal/mol  (  0.174537 au)
 Total Entropy                    =  104.432 cal/mol-K
   - Translational                =   41.300 cal/mol-K (mol. weight = 171.0644)
   - Rotational                   =   30.540 cal/mol-K (symmetry #  =        1)
   - Vibrational                  =   32.593 cal/mol-K
   - Translational                  =    2.979 cal/mol-K
   - Rotational                     =    2.979 cal/mol-K
   - Vibrational                    =   34.773 cal/mol-K
 P.Frequency       -0.00       -0.00       -0.00        0.00        0.00        0.00
 P.Frequency       36.39       74.19       96.60      162.68      196.32      217.27
 P.Frequency      248.66      255.50      309.94      344.50      367.94      382.30
 P.Frequency      434.60      517.92      575.47      643.85      664.14      701.09
 P.Frequency      715.55      757.92      807.12      894.48      914.15      966.68
 P.Frequency     1011.61     1036.78     1087.36     1097.05     1141.65     1157.76
 P.Frequency     1187.85     1249.96     1286.20     1302.00     1326.73     1378.17
 P.Frequency     1412.06     1431.50     1449.75     1457.96     1472.75     1497.40
 P.Frequency     1505.24     1518.52     1536.56     1560.12     1562.19     1589.45
 P.Frequency     2799.35     2976.80     3047.32     3048.42     3103.05     3112.89
 P.Frequency     3182.86     3184.46     3360.47

 Normal Eigenvalue ||           Projected Infra Red Intensities
  Mode   [cm**-1]  || [atomic units] [(debye/angs)**2] [(KM/mol)] [arbitrary]
 ------ ---------- || -------------- ----------------- ---------- -----------
    1       -0.000 ||    0.001078           0.025         1.051       0.163
    2       -0.000 ||    0.006185           0.143         6.030       0.935
    3       -0.000 ||    0.001378           0.032         1.344       0.208
    4        0.000 ||    0.006840           0.158         6.668       1.034
    5        0.000 ||    0.015634           0.361        15.241       2.363
    6        0.000 ||    0.005931           0.137         5.782       0.896
    7       36.395 ||    0.005359           0.124         5.224       0.810
    8       74.192 ||    0.008106           0.187         7.902       1.225
    9       96.598 ||    0.002091           0.048         2.038       0.316
   10      162.684 ||    0.002631           0.061         2.565       0.398
   11      196.317 ||    0.000945           0.022         0.921       0.143
   12      217.268 ||    0.005874           0.136         5.726       0.888
   13      248.658 ||    0.044880           1.035        43.751       6.783
   14      255.500 ||    0.005426           0.125         5.290       0.820
   15      309.942 ||    0.029722           0.686        28.975       4.492
   16      344.502 ||    0.008763           0.202         8.543       1.324
   17      367.942 ||    0.002053           0.047         2.001       0.310
   18      382.300 ||    0.022481           0.519        21.916       3.398
   19      434.601 ||    0.046268           1.067        45.104       6.993
   20      517.916 ||    0.001369           0.032         1.334       0.207
   21      575.469 ||    0.010487           0.242        10.224       1.585
   22      643.845 ||    0.021128           0.487        20.597       3.193
   23      664.139 ||    0.004469           0.103         4.357       0.675
   24      701.085 ||    0.010761           0.248        10.490       1.626
   25      715.547 ||    0.007069           0.163         6.891       1.068
   26      757.917 ||    0.002146           0.050         2.092       0.324
   27      807.118 ||    0.047651           1.099        46.452       7.202
   28      894.477 ||    0.032750           0.756        31.926       4.949
   29      914.155 ||    0.297024           6.853       289.554      44.890
   30      966.678 ||    0.006197           0.143         6.041       0.937
   31     1011.610 ||    0.055202           1.274        53.814       8.343
   32     1036.779 ||    0.006591           0.152         6.426       0.996
   33     1087.363 ||    0.193357           4.461       188.494      29.222
   34     1097.049 ||    0.016929           0.391        16.503       2.558
   35     1141.654 ||    0.041497           0.957        40.454       6.272
   36     1157.757 ||    0.120702           2.785       117.666      18.242
   37     1187.852 ||    0.060317           1.392        58.800       9.116
   38     1249.960 ||    0.186018           4.292       181.339      28.113
   39     1286.205 ||    0.094923           2.190        92.536      14.346
   40     1301.998 ||    0.116616           2.690       113.683      17.624
   41     1326.733 ||    0.041866           0.966        40.813       6.327
   42     1378.172 ||    0.106304           2.453       103.631      16.066
   43     1412.062 ||    0.064880           1.497        63.248       9.805
   44     1431.504 ||    0.020829           0.481        20.305       3.148
   45     1449.751 ||    0.010630           0.245        10.362       1.606
   46     1457.956 ||    0.006324           0.146         6.165       0.956
   47     1472.750 ||    0.086316           1.991        84.146      13.045
   48     1497.398 ||    0.066939           1.544        65.256      10.117
   49     1505.241 ||    0.018133           0.418        17.677       2.740
   50     1518.518 ||    0.044231           1.020        43.119       6.685
   51     1536.556 ||    0.091855           2.119        89.544      13.882
   52     1560.116 ||    0.012392           0.286        12.080       1.873
   53     1562.192 ||    0.022958           0.530        22.381       3.470
   54     1589.452 ||    0.047407           1.094        46.215       7.165
   55     2799.355 ||    1.739409          40.130      1695.662     262.880
   56     2976.805 ||    0.061053           1.409        59.517       9.227
   57     3047.323 ||    0.036569           0.844        35.649       5.527
   58     3048.420 ||    0.070539           1.627        68.765      10.661
   59     3103.048 ||    0.033060           0.763        32.228       4.996
   60     3112.888 ||    0.013956           0.322        13.605       2.109
   61     3182.863 ||    0.014707           0.339        14.337       2.223
   62     3184.459 ||    0.000831           0.019         0.810       0.126
   63     3360.467 ||    0.002519           0.058         2.455       0.381
 ----------------------------------------------------------------------------

 Total times  cpu:    18109.6s     wall:    10600.7s
